{"status": "Succeeded", "recognitionResults": [{"page": 1, "clockwiseOrientation": 0.01, "width": 1692, "height": 2245, "unit": "pixel", "lines": [{"boundingBox": [416, 168, 1274, 172, 1273, 261, 415, 257], "text": "AdPro Starches, Inc.", "words": [{"boundingBox": [430, 172, 698, 173, 695, 259, 426, 251], "text": "AdPro"}, {"boundingBox": [719, 173, 1110, 173, 1107, 261, 715, 259], "text": "Starches,"}, {"boundingBox": [1125, 173, 1274, 172, 1272, 260, 1122, 261], "text": "Inc."}]}, {"boundingBox": [578, 281, 1113, 282, 1112, 327, 577, 326], "text": "1515 Mockingbird Lane, Suite 520", "words": [{"boundingBox": [584, 282, 654, 282, 653, 326, 583, 324], "text": "1515"}, {"boundingBox": [662, 282, 860, 282, 860, 328, 662, 326], "text": "Mockingbird"}, {"boundingBox": [869, 282, 958, 282, 958, 328, 869, 328], "text": "Lane,"}, {"boundingBox": [966, 282, 1044, 282, 1045, 326, 967, 327], "text": "Suite"}, {"boundingBox": [1053, 282, 1111, 282, 1112, 324, 1053, 326], "text": "520"}]}, {"boundingBox": [680, 330, 1004, 329, 1005, 371, 681, 372], "text": "Charlotte, NC 28209", "words": [{"boundingBox": [682, 331, 832, 332, 832, 373, 681, 369], "text": "Charlotte,"}, {"boundingBox": [840, 332, 893, 331, 894, 373, 840, 373], "text": "NC"}, {"boundingBox": [911, 331, 1002, 330, 1004, 369, 912, 372], "text": "28209"}]}, {"boundingBox": [556, 373, 1138, 378, 1137, 419, 555, 415], "text": "704/523-7493 704/525-5672 (FAX)", "words": [{"boundingBox": [561, 375, 777, 377, 778, 417, 562, 413], "text": "704/523-7493"}, {"boundingBox": [810, 377, 1021, 378, 1021, 418, 811, 417], "text": "704/525-5672"}, {"boundingBox": [1028, 378, 1136, 378, 1137, 419, 1029, 418], "text": "(FAX)"}]}, {"boundingBox": [362, 474, 1327, 475, 1327, 529, 361, 527], "text": "MATERIAL SAFETY DATA SHEET", "words": [{"boundingBox": [365, 475, 685, 475, 686, 527, 366, 528], "text": "MATERIAL"}, {"boundingBox": [702, 475, 932, 475, 933, 528, 703, 527], "text": "SAFETY"}, {"boundingBox": [946, 475, 1108, 475, 1108, 529, 947, 528], "text": "DATA"}, {"boundingBox": [1132, 475, 1324, 476, 1324, 530, 1132, 529], "text": "SHEET"}]}, {"boundingBox": [640, 591, 1062, 593, 1061, 641, 639, 639], "text": "IDENTIFICATION", "words": [{"boundingBox": [647, 593, 1049, 593, 1048, 641, 645, 637], "text": "IDENTIFICATION"}]}, {"boundingBox": [215, 695, 446, 697, 445, 735, 214, 734], "text": "Product Name:", "words": [{"boundingBox": [222, 696, 340, 697, 339, 735, 220, 734], "text": "Product"}, {"boundingBox": [348, 697, 446, 698, 444, 735, 346, 735], "text": "Name:"}]}, {"boundingBox": [695, 668, 939, 663, 941, 738, 697, 744], "text": "AdCide", "words": [{"boundingBox": [703, 670, 938, 665, 936, 740, 702, 743], "text": "AdCide"}]}, {"boundingBox": [221, 752, 1203, 751, 1203, 795, 222, 795], "text": "Chemical Names/Synonyms: Tetrahydro-3,5-dimethyl-2H-1,3,5-", "words": [{"boundingBox": [222, 753, 364, 753, 363, 795, 222, 795], "text": "Chemical"}, {"boundingBox": [372, 753, 665, 753, 664, 795, 371, 795], "text": "Names/Synonyms:"}, {"boundingBox": [673, 753, 1202, 752, 1202, 795, 672, 795], "text": "Tetrahydro-3,5-dimethyl-2H-1,3,5-"}]}, {"boundingBox": [218, 796, 949, 799, 948, 844, 217, 841], "text": "thiadiazine-2-thione; Mylone; DMTT; Dazomet", "words": [{"boundingBox": [221, 797, 534, 799, 534, 844, 221, 838], "text": "thiadiazine-2-thione;"}, {"boundingBox": [542, 799, 672, 800, 672, 844, 542, 844], "text": "Mylone;"}, {"boundingBox": [680, 800, 796, 801, 796, 843, 680, 844], "text": "DMTT;"}, {"boundingBox": [804, 801, 947, 801, 948, 840, 805, 842], "text": "Dazomet"}]}, {"boundingBox": [220, 842, 812, 847, 811, 892, 219, 887], "text": "DOT Shipping Name: Non-Hazardous", "words": [{"boundingBox": [220, 843, 300, 843, 301, 888, 221, 887], "text": "DOT"}, {"boundingBox": [309, 843, 444, 845, 445, 890, 310, 888], "text": "Shipping"}, {"boundingBox": [453, 845, 559, 846, 559, 891, 453, 890], "text": "Name:"}, {"boundingBox": [568, 846, 812, 848, 811, 891, 568, 891], "text": "Non-Hazardous"}]}, {"boundingBox": [215, 890, 769, 894, 768, 937, 214, 932], "text": "DOT Hazard Class: Non-Hazardous", "words": [{"boundingBox": [223, 892, 302, 892, 299, 934, 220, 933], "text": "DOT"}, {"boundingBox": [310, 892, 418, 892, 416, 935, 307, 934], "text": "Hazard"}, {"boundingBox": [427, 892, 527, 893, 525, 935, 424, 935], "text": "Class:"}, {"boundingBox": [535, 893, 768, 896, 767, 937, 533, 935], "text": "Non-Hazardous"}]}, {"boundingBox": [220, 1001, 710, 1003, 709, 1043, 219, 1041], "text": "PHYSICAL DATA (TYPICAL)", "words": [{"boundingBox": [220, 1003, 407, 1004, 406, 1041, 221, 1041], "text": "PHYSICAL"}, {"boundingBox": [414, 1004, 517, 1004, 516, 1042, 414, 1041], "text": "DATA"}, {"boundingBox": [525, 1004, 708, 1003, 706, 1044, 524, 1042], "text": "(TYPICAL)", "confidence": "Low"}]}, {"boundingBox": [217, 1113, 785, 1111, 786, 1151, 218, 1153], "text": "Appearance: White crystalline solid", "words": [{"boundingBox": [226, 1114, 441, 1113, 440, 1153, 225, 1153], "text": "Appearance:"}, {"boundingBox": [449, 1113, 539, 1113, 537, 1153, 448, 1153], "text": "White"}, {"boundingBox": [546, 1113, 703, 1112, 701, 1153, 545, 1153], "text": "crystalline"}, {"boundingBox": [710, 1112, 785, 1112, 783, 1153, 709, 1153], "text": "solid"}]}, {"boundingBox": [885, 1111, 1312, 1110, 1313, 1154, 886, 1155], "text": "Solubility in Water: <0.2%", "words": [{"boundingBox": [892, 1111, 1043, 1112, 1042, 1153, 891, 1156], "text": "Solubility"}, {"boundingBox": [1052, 1112, 1084, 1112, 1083, 1153, 1051, 1153], "text": "in"}, {"boundingBox": [1093, 1112, 1206, 1112, 1205, 1154, 1092, 1153], "text": "Water:"}, {"boundingBox": [1215, 1112, 1311, 1111, 1309, 1155, 1213, 1154], "text": "<0.2%"}]}, {"boundingBox": [222, 1157, 625, 1158, 624, 1201, 221, 1200], "text": "Odor: Mild Sulfide Odor", "words": [{"boundingBox": [225, 1160, 328, 1159, 327, 1201, 224, 1199], "text": "Odor:"}, {"boundingBox": [335, 1158, 412, 1158, 412, 1201, 335, 1201], "text": "Mild"}, {"boundingBox": [420, 1158, 530, 1159, 531, 1201, 420, 1201], "text": "Sulfide"}, {"boundingBox": [538, 1159, 622, 1160, 623, 1200, 538, 1201], "text": "Odor"}]}, {"boundingBox": [890, 1160, 1227, 1156, 1228, 1201, 890, 1205], "text": "Melting Point: 2210 F", "words": [{"boundingBox": [890, 1160, 1012, 1159, 1012, 1204, 891, 1206], "text": "Melting"}, {"boundingBox": [1021, 1159, 1124, 1158, 1124, 1203, 1021, 1204], "text": "Point:"}, {"boundingBox": [1134, 1158, 1203, 1157, 1202, 1202, 1133, 1202], "text": "2210"}, {"boundingBox": [1213, 1157, 1228, 1157, 1226, 1202, 1211, 1202], "text": "F"}]}, {"boundingBox": [224, 1207, 497, 1207, 497, 1247, 225, 1248], "text": "Density: 47 1b/ft3", "words": [{"boundingBox": [225, 1208, 368, 1209, 369, 1249, 226, 1246], "text": "Density:"}, {"boundingBox": [376, 1209, 413, 1209, 414, 1248, 376, 1249], "text": "47"}, {"boundingBox": [420, 1208, 497, 1207, 498, 1245, 421, 1248], "text": "1b/ft3", "confidence": "Low"}]}, {"boundingBox": [224, 1299, 713, 1302, 712, 1345, 223, 1342], "text": "HAZARDOUS INGREDIENTS", "words": [{"boundingBox": [224, 1301, 455, 1301, 455, 1341, 224, 1342], "text": "HAZARDOUS"}, {"boundingBox": [464, 1301, 712, 1303, 711, 1345, 463, 1341], "text": "INGREDIENTS"}]}, {"boundingBox": [224, 1414, 448, 1413, 449, 1450, 224, 1451], "text": "Components:", "words": [{"boundingBox": [227, 1414, 448, 1414, 449, 1450, 227, 1451], "text": "Components:"}]}, {"boundingBox": [986, 1415, 1029, 1412, 1028, 1453, 985, 1456], "text": "%", "words": [{"boundingBox": [1011, 1413, 1027, 1412, 1030, 1451, 1014, 1453], "text": "%"}]}, {"boundingBox": [1177, 1410, 1258, 1410, 1257, 1450, 1178, 1450], "text": "TLV", "words": [{"boundingBox": [1187, 1410, 1257, 1410, 1257, 1450, 1187, 1450], "text": "TLV"}]}, {"boundingBox": [222, 1503, 754, 1502, 755, 1545, 223, 1546], "text": "Tetrahydro-3,5-dimethyl-2H-1,3,5-", "words": [{"boundingBox": [229, 1504, 754, 1503, 754, 1545, 231, 1546], "text": "Tetrahydro-3,5-dimethyl-2H-1,3,5-"}]}, {"boundingBox": [992, 1508, 1028, 1506, 1030, 1540, 993, 1542], "text": "98", "words": [{"boundingBox": [993, 1506, 1025, 1505, 1027, 1540, 995, 1541], "text": "98"}]}, {"boundingBox": [1107, 1506, 1359, 1503, 1360, 1541, 1108, 1543], "text": "Not established", "words": [{"boundingBox": [1115, 1507, 1178, 1507, 1179, 1542, 1116, 1544], "text": "Not"}, {"boundingBox": [1186, 1507, 1358, 1504, 1359, 1541, 1187, 1542], "text": "established"}]}, {"boundingBox": [228, 1549, 809, 1549, 809, 1591, 229, 1592], "text": "thiadiazine-2thione CAS No. 533-74-4", "words": [{"boundingBox": [230, 1551, 520, 1551, 519, 1592, 229, 1591], "text": "thiadiazine-2thione"}, {"boundingBox": [528, 1551, 599, 1551, 598, 1592, 527, 1592], "text": "CAS"}, {"boundingBox": [607, 1551, 667, 1550, 667, 1592, 606, 1592], "text": "No."}, {"boundingBox": [675, 1550, 809, 1549, 809, 1592, 675, 1592], "text": "533-74-4"}]}, {"boundingBox": [228, 1643, 727, 1645, 726, 1689, 227, 1687], "text": "FIRE AND EXPLOSION DATA", "words": [{"boundingBox": [229, 1645, 313, 1645, 312, 1686, 228, 1687], "text": "FIRE"}, {"boundingBox": [321, 1645, 400, 1645, 399, 1685, 320, 1686], "text": "AND"}, {"boundingBox": [408, 1645, 615, 1646, 613, 1687, 407, 1685], "text": "EXPLOSION"}, {"boundingBox": [623, 1646, 726, 1646, 724, 1690, 621, 1687], "text": "DATA"}]}, {"boundingBox": [225, 1751, 804, 1754, 803, 1799, 224, 1797], "text": "Flash point (method): 280 F (TOC)", "words": [{"boundingBox": [230, 1754, 318, 1754, 316, 1797, 228, 1796], "text": "Flash"}, {"boundingBox": [326, 1754, 411, 1755, 410, 1798, 324, 1797], "text": "point"}, {"boundingBox": [420, 1755, 585, 1755, 583, 1800, 418, 1798], "text": "(method):"}, {"boundingBox": [593, 1755, 659, 1755, 657, 1800, 591, 1800], "text": "280", "confidence": "Low"}, {"boundingBox": [670, 1755, 692, 1755, 690, 1800, 668, 1800], "text": "F"}, {"boundingBox": [700, 1755, 804, 1754, 803, 1799, 699, 1800], "text": "(TOC)"}]}, {"boundingBox": [224, 1801, 1021, 1803, 1020, 1848, 223, 1846], "text": "Extinguishing Media: Water, CO2 or dry chemical", "words": [{"boundingBox": [231, 1803, 454, 1804, 452, 1847, 229, 1844], "text": "Extinguishing"}, {"boundingBox": [462, 1804, 587, 1804, 584, 1848, 460, 1847], "text": "Media:"}, {"boundingBox": [595, 1804, 696, 1804, 693, 1849, 592, 1848], "text": "Water,"}, {"boundingBox": [703, 1804, 775, 1804, 772, 1849, 701, 1849], "text": "CO2"}, {"boundingBox": [783, 1804, 818, 1804, 814, 1849, 780, 1849], "text": "or"}, {"boundingBox": [826, 1804, 873, 1803, 870, 1849, 822, 1849], "text": "dry"}, {"boundingBox": [881, 1803, 1019, 1803, 1016, 1849, 878, 1849], "text": "chemical"}]}, {"boundingBox": [229, 1847, 1012, 1853, 1011, 1898, 228, 1893], "text": "Special Fire Fighting Procedures: Not applicable", "words": [{"boundingBox": [229, 1849, 347, 1851, 347, 1894, 230, 1893], "text": "Special"}, {"boundingBox": [355, 1851, 421, 1851, 421, 1895, 355, 1894], "text": "Fire"}, {"boundingBox": [430, 1851, 564, 1852, 563, 1896, 429, 1895], "text": "Fighting"}, {"boundingBox": [573, 1852, 773, 1853, 771, 1898, 572, 1896], "text": "Procedures:"}, {"boundingBox": [782, 1853, 842, 1853, 839, 1898, 780, 1898], "text": "Not"}, {"boundingBox": [851, 1853, 1011, 1853, 1007, 1899, 848, 1898], "text": "applicable"}]}, {"boundingBox": [226, 1899, 934, 1898, 935, 1944, 227, 1945], "text": "Unusual Fire and Explosion Hazards: None", "words": [{"boundingBox": [231, 1899, 367, 1900, 366, 1945, 230, 1943], "text": "Unusual"}, {"boundingBox": [375, 1900, 441, 1901, 441, 1946, 374, 1945], "text": "Fire"}, {"boundingBox": [450, 1901, 511, 1901, 510, 1946, 449, 1946], "text": "and"}, {"boundingBox": [519, 1901, 678, 1901, 677, 1945, 519, 1946], "text": "Explosion"}, {"boundingBox": [686, 1901, 839, 1901, 839, 1943, 686, 1945], "text": "Hazards:"}, {"boundingBox": [848, 1901, 934, 1900, 934, 1942, 848, 1943], "text": "None"}]}, {"boundingBox": [1643, 1879, 1643, 2078, 1610, 2079, 1610, 1880], "text": "52143 5496", "words": [{"boundingBox": [1643, 1884, 1643, 1981, 1613, 1980, 1611, 1884], "text": "52143"}, {"boundingBox": [1643, 2003, 1641, 2079, 1612, 2077, 1613, 2002], "text": "5496"}]}, {"boundingBox": [373, 2201, 1329, 2199, 1330, 2237, 374, 2239], "text": "Source: https://www.industrydocuments.ucsf.edu/docs/fzgg0065", "words": [{"boundingBox": [377, 2202, 488, 2203, 488, 2238, 376, 2238], "text": "Source:"}, {"boundingBox": [495, 2203, 1325, 2201, 1326, 2235, 495, 2238], "text": "https://www.industrydocuments.ucsf.edu/docs/fzgg0065"}]}]}]}