{"status": "Succeeded", "recognitionResults": [{"page": 1, "clockwiseOrientation": 0.14, "width": 1692, "height": 2245, "unit": "pixel", "lines": [{"boundingBox": [48, 61, 121, 62, 120, 86, 47, 85], "text": "837598", "words": [{"boundingBox": [51, 62, 121, 62, 120, 86, 51, 86], "text": "837598"}]}, {"boundingBox": [1281, 60, 1566, 59, 1566, 88, 1282, 89], "text": "file:///V/MSDS/1837598.html", "words": [{"boundingBox": [1287, 61, 1566, 59, 1565, 85, 1287, 86], "text": "file:///V/MSDS/1837598.html", "confidence": "Low"}]}, {"boundingBox": [487, 137, 792, 128, 794, 186, 489, 195], "text": "RX 1092 STD", "words": [{"boundingBox": [496, 137, 562, 136, 563, 194, 497, 196], "text": "RX"}, {"boundingBox": [573, 135, 674, 133, 675, 190, 574, 193], "text": "1092"}, {"boundingBox": [685, 133, 790, 131, 790, 186, 686, 190], "text": "STD", "confidence": "Low"}]}, {"boundingBox": [1066, 158, 1286, 154, 1287, 183, 1066, 187], "text": "Code: 837-598", "words": [{"boundingBox": [1072, 158, 1156, 158, 1157, 187, 1073, 187], "text": "Code:"}, {"boundingBox": [1171, 158, 1286, 155, 1287, 181, 1172, 186], "text": "837-598"}]}, {"boundingBox": [1071, 187, 1350, 185, 1351, 214, 1072, 216], "text": "Date: 19 JUL 1996", "words": [{"boundingBox": [1073, 188, 1156, 189, 1156, 216, 1072, 215], "text": "Date:"}, {"boundingBox": [1170, 188, 1204, 188, 1204, 216, 1170, 216], "text": "19"}, {"boundingBox": [1220, 188, 1267, 188, 1268, 215, 1220, 216], "text": "JUL"}, {"boundingBox": [1283, 187, 1349, 186, 1350, 214, 1284, 215], "text": "1996"}]}, {"boundingBox": [1072, 218, 1400, 213, 1401, 242, 1073, 247], "text": "Printed: 03 SEP 1996", "words": [{"boundingBox": [1074, 220, 1205, 219, 1205, 245, 1073, 245], "text": "Printed:"}, {"boundingBox": [1220, 219, 1254, 218, 1254, 245, 1220, 245], "text": "03"}, {"boundingBox": [1267, 218, 1317, 217, 1318, 244, 1268, 244], "text": "SEP"}, {"boundingBox": [1332, 216, 1398, 214, 1400, 242, 1334, 244], "text": "1996"}]}, {"boundingBox": [693, 279, 831, 280, 830, 306, 692, 305], "text": "ENGELHARD", "words": [{"boundingBox": [696, 281, 829, 280, 830, 307, 697, 305], "text": "ENGELHARD"}]}, {"boundingBox": [1197, 270, 1327, 278, 1324, 333, 1193, 326], "text": "8 02", "words": [{"boundingBox": [1203, 269, 1240, 271, 1237, 327, 1200, 325], "text": "8"}, {"boundingBox": [1255, 272, 1322, 276, 1319, 332, 1252, 328], "text": "02"}]}, {"boundingBox": [564, 336, 976, 338, 975, 365, 563, 364], "text": "MATERIAL SAFETY DATA SHEET", "words": [{"boundingBox": [564, 337, 697, 339, 699, 365, 566, 364], "text": "MATERIAL"}, {"boundingBox": [710, 339, 809, 339, 810, 366, 712, 366], "text": "SAFETY"}, {"boundingBox": [820, 339, 885, 339, 886, 366, 821, 366], "text": "DATA"}, {"boundingBox": [900, 339, 975, 338, 976, 365, 901, 366], "text": "SHEET"}]}, {"boundingBox": [213, 397, 803, 393, 804, 424, 214, 428], "text": "Product: MADDER LAKE CONCENTRATE 1092", "words": [{"boundingBox": [214, 398, 346, 397, 346, 428, 214, 427], "text": "Product:", "confidence": "Low"}, {"boundingBox": [356, 396, 459, 396, 459, 427, 356, 428], "text": "MADDER"}, {"boundingBox": [472, 396, 540, 395, 541, 427, 473, 427], "text": "LAKE"}, {"boundingBox": [554, 395, 730, 394, 731, 424, 554, 427], "text": "CONCENTRATE"}, {"boundingBox": [744, 394, 804, 394, 805, 423, 745, 424], "text": "1092"}]}, {"boundingBox": [349, 452, 1256, 448, 1257, 481, 350, 485], "text": "SECTION 1: CHEMICAL PRODUCT AND COMPANY IDENTIFICATION. .", "words": [{"boundingBox": [358, 454, 471, 455, 473, 484, 359, 483], "text": "SECTION"}, {"boundingBox": [488, 455, 524, 455, 525, 484, 490, 484], "text": "1:"}, {"boundingBox": [535, 455, 665, 455, 667, 484, 536, 484], "text": "CHEMICAL"}, {"boundingBox": [680, 455, 793, 455, 796, 484, 682, 484], "text": "PRODUCT"}, {"boundingBox": [805, 455, 855, 454, 858, 484, 807, 484], "text": "AND"}, {"boundingBox": [866, 454, 981, 453, 985, 483, 869, 484], "text": "COMPANY", "confidence": "Low"}, {"boundingBox": [995, 453, 1229, 449, 1233, 480, 998, 483], "text": "IDENTIFICATION."}, {"boundingBox": [1235, 449, 1253, 449, 1257, 480, 1239, 480], "text": "."}]}, {"boundingBox": [209, 520, 391, 520, 390, 545, 208, 544], "text": "Common Name", "words": [{"boundingBox": [212, 520, 309, 521, 309, 544, 214, 545], "text": "Common"}, {"boundingBox": [324, 521, 391, 521, 391, 546, 324, 544], "text": "Name"}]}, {"boundingBox": [626, 522, 794, 519, 795, 546, 627, 548], "text": "ENT RED 83", "words": [{"boundingBox": [630, 524, 681, 523, 684, 548, 633, 548], "text": "ENT"}, {"boundingBox": [694, 523, 741, 521, 744, 547, 696, 547], "text": "RED"}, {"boundingBox": [757, 521, 791, 520, 793, 546, 760, 547], "text": "83", "confidence": "Low"}]}, {"boundingBox": [210, 548, 425, 550, 424, 576, 209, 574], "text": "Chemical Name", "words": [{"boundingBox": [215, 549, 344, 550, 344, 575, 215, 575], "text": "Chemical", "confidence": "Low"}, {"boundingBox": [357, 550, 425, 551, 425, 577, 357, 575], "text": "Name"}]}, {"boundingBox": [449, 548, 1144, 546, 1144, 574, 450, 576], "text": ": LAKE OF ALIZARIN ON ALUMINUM HYDRATE BASE", "words": [{"boundingBox": [458, 549, 475, 549, 477, 575, 459, 575], "text": ":"}, {"boundingBox": [487, 549, 553, 549, 554, 575, 489, 575], "text": "LAKE"}, {"boundingBox": [567, 549, 601, 549, 602, 575, 568, 575], "text": "OF"}, {"boundingBox": [615, 549, 742, 549, 743, 575, 616, 575], "text": "ALIZARIN"}, {"boundingBox": [756, 549, 788, 549, 789, 575, 757, 575], "text": "ON"}, {"boundingBox": [804, 549, 930, 548, 930, 575, 805, 575], "text": "ALUMINUM"}, {"boundingBox": [945, 548, 1059, 547, 1059, 574, 946, 575], "text": "HYDRATE"}, {"boundingBox": [1072, 547, 1139, 546, 1140, 574, 1073, 574], "text": "BASE"}]}, {"boundingBox": [208, 578, 330, 583, 329, 606, 207, 601], "text": "Formula", "words": [{"boundingBox": [213, 580, 325, 583, 325, 607, 214, 603], "text": "Formula"}]}, {"boundingBox": [450, 576, 681, 581, 680, 607, 449, 603], "text": ": C. I. 58000:1", "words": [{"boundingBox": [458, 577, 474, 578, 475, 603, 459, 602], "text": ":"}, {"boundingBox": [488, 578, 516, 579, 516, 605, 488, 604], "text": "C."}, {"boundingBox": [521, 579, 555, 580, 556, 606, 521, 605], "text": "I."}, {"boundingBox": [568, 581, 681, 581, 681, 605, 569, 606], "text": "58000:1"}]}, {"boundingBox": [210, 611, 743, 610, 744, 636, 211, 636], "text": "Product CAS No. : CHEMICAL MIXTURE", "words": [{"boundingBox": [216, 612, 325, 612, 325, 636, 216, 635], "text": "Product"}, {"boundingBox": [342, 612, 390, 611, 391, 637, 342, 636], "text": "CAS"}, {"boundingBox": [406, 611, 454, 611, 455, 637, 406, 637], "text": "No."}, {"boundingBox": [459, 611, 474, 611, 475, 637, 459, 637], "text": ":"}, {"boundingBox": [488, 611, 617, 611, 618, 637, 488, 637], "text": "CHEMICAL"}, {"boundingBox": [629, 611, 741, 611, 743, 636, 630, 637], "text": "MIXTURE"}]}, {"boundingBox": [207, 639, 391, 640, 391, 667, 206, 665], "text": "Product Use", "words": [{"boundingBox": [213, 641, 327, 640, 327, 666, 214, 665], "text": "Product"}, {"boundingBox": [341, 640, 390, 641, 391, 667, 342, 666], "text": "Use"}]}, {"boundingBox": [442, 640, 777, 639, 778, 668, 443, 669], "text": ": Industrial pigment", "words": [{"boundingBox": [458, 645, 473, 644, 474, 668, 459, 668], "text": ":"}, {"boundingBox": [489, 644, 648, 640, 649, 666, 489, 667], "text": "Industrial"}, {"boundingBox": [662, 640, 772, 642, 774, 669, 663, 666], "text": "pigment"}]}, {"boundingBox": [214, 698, 338, 701, 337, 727, 213, 724], "text": "supplier", "words": [{"boundingBox": [217, 699, 336, 701, 337, 727, 216, 724], "text": "supplier"}]}, {"boundingBox": [453, 700, 1264, 698, 1264, 725, 454, 728], "text": ": ENGELHARD CORPORATION, PIGMENTS & ADDITIVES GROUP", "words": [{"boundingBox": [458, 702, 475, 702, 474, 728, 457, 728], "text": ":"}, {"boundingBox": [487, 702, 632, 702, 632, 727, 486, 728], "text": "ENGELHARD"}, {"boundingBox": [647, 702, 839, 702, 839, 727, 647, 727], "text": "CORPORATION,"}, {"boundingBox": [851, 702, 981, 701, 981, 727, 851, 727], "text": "PIGMENTS"}, {"boundingBox": [994, 701, 1011, 701, 1012, 727, 994, 727], "text": "&"}, {"boundingBox": [1023, 701, 1172, 699, 1172, 726, 1024, 727], "text": "ADDITIVES"}, {"boundingBox": [1185, 699, 1262, 698, 1263, 726, 1186, 726], "text": "GROUP", "confidence": "Low"}]}, {"boundingBox": [214, 729, 331, 732, 331, 758, 213, 754], "text": "Address", "words": [{"boundingBox": [215, 730, 328, 733, 328, 758, 214, 753], "text": "Address"}]}, {"boundingBox": [477, 728, 724, 727, 725, 757, 478, 759], "text": "101 WOOD AVENUE", "words": [{"boundingBox": [489, 730, 541, 729, 541, 755, 490, 758], "text": "101"}, {"boundingBox": [551, 728, 619, 728, 620, 753, 551, 755], "text": "WOOD"}, {"boundingBox": [631, 728, 724, 731, 725, 755, 631, 753], "text": "AVENUE"}]}, {"boundingBox": [209, 758, 424, 760, 423, 790, 208, 789], "text": "City, St, Zip", "words": [{"boundingBox": [213, 760, 296, 760, 297, 790, 213, 786], "text": "City,"}, {"boundingBox": [310, 760, 361, 760, 362, 790, 310, 790], "text": "St,"}, {"boundingBox": [374, 760, 422, 760, 423, 788, 375, 790], "text": "Zip"}]}, {"boundingBox": [214, 791, 288, 794, 287, 819, 213, 815], "text": "Phone", "words": [{"boundingBox": [216, 794, 287, 796, 286, 819, 215, 815], "text": "Phone"}]}, {"boundingBox": [453, 814, 454, 780, 474, 777, 474, 811], "text": "..", "words": [{"boundingBox": [452, 811, 452, 788, 473, 789, 473, 811], "text": "..", "confidence": "Low"}]}, {"boundingBox": [475, 758, 839, 756, 840, 785, 476, 787], "text": "ISELIN, NJ 08830-0770", "words": [{"boundingBox": [488, 758, 605, 760, 605, 787, 488, 787], "text": "ISELIN,"}, {"boundingBox": [614, 760, 653, 760, 653, 787, 615, 787], "text": "NJ"}, {"boundingBox": [680, 760, 839, 757, 839, 785, 680, 787], "text": "08830-0770"}]}, {"boundingBox": [472, 789, 1035, 788, 1036, 815, 473, 816], "text": "1-908-205-6933 FOR CUSTOMER SERVICE", "words": [{"boundingBox": [489, 790, 713, 791, 714, 816, 490, 815], "text": "1-908-205-6933"}, {"boundingBox": [727, 791, 773, 791, 774, 816, 728, 816], "text": "FOR"}, {"boundingBox": [788, 791, 916, 790, 917, 816, 789, 816], "text": "CUSTOMER"}, {"boundingBox": [932, 790, 1034, 789, 1035, 815, 934, 816], "text": "SERVICE"}]}, {"boundingBox": [481, 815, 1178, 816, 1178, 845, 480, 844], "text": "1-502-775-7286 FOR ENVIRONMENT, HEALTH, AND", "words": [{"boundingBox": [488, 816, 714, 818, 716, 845, 490, 845], "text": "1-502-775-7286", "confidence": "Low"}, {"boundingBox": [725, 818, 775, 819, 777, 844, 727, 845], "text": "FOR"}, {"boundingBox": [788, 819, 983, 818, 985, 845, 790, 844], "text": "ENVIRONMENT,"}, {"boundingBox": [991, 818, 1109, 817, 1111, 845, 993, 845], "text": "HEALTH,"}, {"boundingBox": [1120, 817, 1172, 816, 1174, 845, 1122, 845], "text": "AND"}]}, {"boundingBox": [485, 845, 585, 848, 583, 876, 483, 873], "text": "SAFETY", "words": [{"boundingBox": [489, 845, 585, 849, 584, 876, 489, 874], "text": "SAFETY"}]}, {"boundingBox": [375, 906, 1137, 908, 1136, 936, 374, 935], "text": "FOR CHEMICAL EMERGENCY CALL CHEMTREC (24 HOURS) ;", "words": [{"boundingBox": [376, 907, 426, 908, 426, 934, 375, 934], "text": "FOR"}, {"boundingBox": [440, 908, 569, 909, 570, 936, 440, 935], "text": "CHEMICAL"}, {"boundingBox": [585, 909, 728, 910, 729, 937, 585, 936], "text": "EMERGENCY"}, {"boundingBox": [742, 910, 808, 910, 809, 937, 743, 937], "text": "CALL"}, {"boundingBox": [822, 910, 949, 909, 951, 936, 823, 937], "text": "CHEMTREC"}, {"boundingBox": [967, 909, 1013, 909, 1015, 936, 968, 936], "text": "(24"}, {"boundingBox": [1024, 909, 1117, 908, 1119, 935, 1026, 936], "text": "HOURS)"}, {"boundingBox": [1122, 908, 1134, 908, 1137, 935, 1124, 935], "text": ";", "confidence": "Low"}]}, {"boundingBox": [311, 933, 1202, 935, 1201, 965, 310, 964], "text": "1-800-424-9300 (US, Canada, Puerto Rico, Virgin Islands)", "words": [{"boundingBox": [311, 934, 539, 936, 540, 965, 313, 963], "text": "1-800-424-9300"}, {"boundingBox": [557, 936, 622, 937, 623, 965, 558, 965], "text": "(US,"}, {"boundingBox": [631, 937, 747, 937, 748, 965, 632, 965], "text": "Canada,"}, {"boundingBox": [757, 937, 857, 937, 858, 965, 758, 965], "text": "Puerto"}, {"boundingBox": [867, 937, 954, 937, 954, 965, 868, 965], "text": "Rico,"}, {"boundingBox": [962, 937, 1060, 936, 1060, 965, 962, 965], "text": "Virgin"}, {"boundingBox": [1074, 936, 1201, 935, 1201, 965, 1074, 965], "text": "Islands)"}]}, {"boundingBox": [488, 966, 1042, 968, 1041, 995, 487, 993], "text": "1-202-483-7616 (Outside Above Area)", "words": [{"boundingBox": [490, 966, 715, 968, 716, 995, 491, 993], "text": "1-202-483-7616"}, {"boundingBox": [731, 968, 855, 969, 856, 995, 732, 995], "text": "(Outside"}, {"boundingBox": [868, 969, 951, 969, 951, 995, 869, 995], "text": "Above"}, {"boundingBox": [962, 969, 1041, 969, 1041, 995, 962, 995], "text": "Area)"}]}, {"boundingBox": [438, 1027, 1227, 1026, 1228, 1055, 439, 1055], "text": "SECTION 2: COMPOSITION/INFORMATION ON INGREDIENTS", "words": [{"boundingBox": [441, 1028, 553, 1027, 555, 1056, 442, 1055], "text": "SECTION"}, {"boundingBox": [568, 1027, 604, 1027, 605, 1056, 569, 1056], "text": "2:"}, {"boundingBox": [615, 1027, 979, 1027, 980, 1056, 616, 1056], "text": "COMPOSITION/INFORMATION"}, {"boundingBox": [994, 1027, 1026, 1027, 1027, 1056, 995, 1056], "text": "ON"}, {"boundingBox": [1042, 1027, 1222, 1027, 1223, 1055, 1044, 1056], "text": "INGREDIENTS"}]}, {"boundingBox": [209, 1086, 381, 1087, 380, 1113, 208, 1112], "text": "INGREDIENT", "words": [{"boundingBox": [215, 1089, 376, 1087, 378, 1113, 217, 1111], "text": "INGREDIENT"}]}, {"boundingBox": [775, 1087, 878, 1089, 878, 1116, 774, 1114], "text": "CAS NO.", "words": [{"boundingBox": [775, 1089, 823, 1089, 823, 1115, 776, 1114], "text": "CAS"}, {"boundingBox": [835, 1089, 879, 1089, 878, 1116, 836, 1115], "text": "NO."}]}, {"boundingBox": [1141, 1087, 1215, 1090, 1214, 1115, 1140, 1112], "text": "8 Wt.", "words": [{"boundingBox": [1141, 1089, 1156, 1090, 1156, 1113, 1142, 1112], "text": "8", "confidence": "Low"}, {"boundingBox": [1169, 1090, 1214, 1090, 1214, 1115, 1170, 1114], "text": "Wt."}]}, {"boundingBox": [207, 1145, 522, 1145, 522, 1175, 208, 1176], "text": "C. I. PIGMENT RED 83", "words": [{"boundingBox": [214, 1147, 240, 1147, 242, 1175, 216, 1175], "text": "C."}, {"boundingBox": [246, 1147, 282, 1147, 283, 1174, 248, 1175], "text": "I."}, {"boundingBox": [293, 1147, 411, 1146, 411, 1174, 294, 1174], "text": "PIGMENT"}, {"boundingBox": [424, 1146, 477, 1146, 477, 1175, 424, 1174], "text": "RED"}, {"boundingBox": [492, 1146, 522, 1145, 521, 1176, 491, 1175], "text": "83"}]}, {"boundingBox": [772, 1171, 891, 1174, 890, 1206, 771, 1203], "text": "72-48-0", "words": [{"boundingBox": [774, 1172, 888, 1174, 890, 1205, 775, 1205], "text": "72-48-0"}]}, {"boundingBox": [1138, 1175, 1226, 1174, 1227, 1202, 1139, 1203], "text": "80-95", "words": [{"boundingBox": [1139, 1176, 1221, 1175, 1223, 1203, 1140, 1203], "text": "80-95"}]}, {"boundingBox": [212, 1236, 399, 1237, 398, 1261, 211, 1260], "text": "BARIUM SULFA", "words": [{"boundingBox": [213, 1237, 308, 1237, 309, 1261, 214, 1262], "text": "BARIUM", "confidence": "Low"}, {"boundingBox": [327, 1237, 398, 1237, 399, 1261, 328, 1261], "text": "SULFA", "confidence": "Low"}]}, {"boundingBox": [775, 1261, 916, 1262, 915, 1293, 774, 1292], "text": "7727-43-7", "words": [{"boundingBox": [777, 1264, 915, 1262, 916, 1293, 778, 1293], "text": "7727-43-7"}]}, {"boundingBox": [1153, 1264, 1220, 1263, 1220, 1292, 1154, 1292], "text": "1-20", "words": [{"boundingBox": [1156, 1262, 1218, 1262, 1218, 1291, 1156, 1291], "text": "1-20"}]}, {"boundingBox": [211, 1323, 1153, 1325, 1152, 1354, 210, 1353], "text": "NOTE: See Section 8 for Exposure Limits and Section 11 for", "words": [{"boundingBox": [211, 1325, 296, 1326, 297, 1352, 212, 1351], "text": "NOTE:"}, {"boundingBox": [326, 1326, 376, 1326, 377, 1353, 327, 1352], "text": "See"}, {"boundingBox": [391, 1326, 505, 1326, 505, 1354, 392, 1353], "text": "Section"}, {"boundingBox": [521, 1326, 538, 1326, 539, 1354, 522, 1354], "text": "8"}, {"boundingBox": [555, 1326, 601, 1326, 602, 1354, 555, 1354], "text": "for"}, {"boundingBox": [616, 1326, 743, 1326, 744, 1355, 617, 1354], "text": "Exposure"}, {"boundingBox": [758, 1326, 855, 1325, 856, 1355, 759, 1355], "text": "Limits"}, {"boundingBox": [868, 1325, 917, 1325, 917, 1355, 869, 1355], "text": "and"}, {"boundingBox": [932, 1325, 1042, 1325, 1043, 1354, 933, 1355], "text": "Section"}, {"boundingBox": [1058, 1325, 1092, 1325, 1093, 1354, 1059, 1354], "text": "11", "confidence": "Low"}, {"boundingBox": [1108, 1325, 1152, 1325, 1153, 1354, 1109, 1354], "text": "for"}]}, {"boundingBox": [214, 1355, 631, 1356, 630, 1384, 213, 1383], "text": "Toxicological Information.", "words": [{"boundingBox": [217, 1356, 428, 1357, 428, 1383, 216, 1383], "text": "Toxicological"}, {"boundingBox": [443, 1357, 630, 1356, 631, 1385, 442, 1384], "text": "Information."}]}, {"boundingBox": [501, 1410, 1034, 1412, 1033, 1443, 500, 1442], "text": "SECTION 3: HAZARDS IDENTIFICATION", "words": [{"boundingBox": [507, 1411, 619, 1413, 619, 1443, 507, 1441], "text": "SECTION"}, {"boundingBox": [635, 1413, 670, 1413, 671, 1443, 635, 1443], "text": "3:", "confidence": "Low"}, {"boundingBox": [678, 1413, 796, 1414, 797, 1444, 678, 1443], "text": "HAZARDS"}, {"boundingBox": [806, 1414, 1029, 1412, 1030, 1442, 807, 1444], "text": "IDENTIFICATION"}]}, {"boundingBox": [211, 1474, 512, 1475, 512, 1502, 210, 1501], "text": "EMERGENCY OVERVIEW", "words": [{"boundingBox": [215, 1476, 360, 1476, 362, 1501, 217, 1501], "text": "EMERGENCY"}, {"boundingBox": [373, 1476, 504, 1475, 507, 1502, 375, 1502], "text": "OVERVIEW"}]}, {"boundingBox": [213, 1530, 653, 1534, 652, 1566, 212, 1562], "text": "Bright blue red fine powder", "words": [{"boundingBox": [215, 1533, 314, 1533, 315, 1562, 217, 1562], "text": "Bright"}, {"boundingBox": [325, 1533, 395, 1533, 395, 1562, 327, 1562], "text": "blue"}, {"boundingBox": [409, 1534, 460, 1534, 460, 1563, 410, 1562], "text": "red"}, {"boundingBox": [475, 1534, 540, 1534, 540, 1564, 475, 1563], "text": "fine"}, {"boundingBox": [553, 1534, 652, 1534, 652, 1567, 553, 1564], "text": "powder"}]}, {"boundingBox": [211, 1653, 353, 1652, 354, 1680, 212, 1681], "text": "ENGELHARD", "words": [{"boundingBox": [215, 1653, 352, 1655, 353, 1678, 216, 1681], "text": "ENGELHARD"}]}, {"boundingBox": [756, 1653, 853, 1652, 853, 1681, 757, 1682], "text": "Page 2", "words": [{"boundingBox": [759, 1654, 826, 1653, 826, 1682, 758, 1682], "text": "Page"}, {"boundingBox": [839, 1653, 851, 1653, 851, 1681, 839, 1682], "text": "2"}]}, {"boundingBox": [1070, 1650, 1279, 1648, 1280, 1679, 1071, 1681], "text": "Code: 837-598", "words": [{"boundingBox": [1074, 1653, 1159, 1650, 1160, 1678, 1076, 1681], "text": "Code:"}, {"boundingBox": [1172, 1650, 1279, 1653, 1280, 1677, 1173, 1678], "text": "837-598"}]}, {"boundingBox": [212, 1683, 638, 1682, 639, 1712, 213, 1712], "text": "MATERIAL SAFETY DATA SHEET", "words": [{"boundingBox": [213, 1687, 342, 1687, 343, 1711, 215, 1709], "text": "MATERIAL"}, {"boundingBox": [361, 1687, 457, 1686, 458, 1712, 362, 1711], "text": "SAFETY"}, {"boundingBox": [473, 1686, 535, 1685, 536, 1712, 474, 1712], "text": "DATA"}, {"boundingBox": [554, 1684, 633, 1683, 634, 1712, 555, 1712], "text": "SHEET"}]}, {"boundingBox": [1075, 1681, 1351, 1683, 1350, 1712, 1075, 1710], "text": "Date: 19 JUL 1996", "words": [{"boundingBox": [1076, 1682, 1160, 1683, 1160, 1709, 1075, 1710], "text": "Date:"}, {"boundingBox": [1172, 1683, 1207, 1683, 1207, 1709, 1171, 1709], "text": "19"}, {"boundingBox": [1221, 1683, 1272, 1684, 1272, 1710, 1221, 1709], "text": "JUL"}, {"boundingBox": [1287, 1684, 1349, 1684, 1349, 1712, 1287, 1711], "text": "1996"}]}, {"boundingBox": [215, 1743, 337, 1745, 337, 1772, 214, 1770], "text": "Odorless", "words": [{"boundingBox": [215, 1745, 337, 1746, 337, 1772, 216, 1770], "text": "Odorless"}]}, {"boundingBox": [214, 1801, 652, 1803, 651, 1830, 213, 1827], "text": "Flash Point: Not Determined", "words": [{"boundingBox": [216, 1801, 296, 1803, 298, 1828, 218, 1828], "text": "Flash"}, {"boundingBox": [312, 1803, 413, 1804, 415, 1828, 314, 1828], "text": "Point:"}, {"boundingBox": [422, 1804, 477, 1804, 479, 1828, 424, 1828], "text": "Not"}, {"boundingBox": [490, 1805, 650, 1804, 652, 1830, 492, 1829], "text": "Determined"}]}, {"boundingBox": [213, 1861, 853, 1863, 852, 1893, 212, 1890], "text": "May cause mechanical irritation to eyes.", "words": [{"boundingBox": [213, 1861, 267, 1862, 268, 1891, 214, 1891], "text": "May"}, {"boundingBox": [279, 1862, 364, 1863, 365, 1891, 280, 1891], "text": "cause"}, {"boundingBox": [374, 1863, 543, 1864, 544, 1892, 375, 1891], "text": "mechanical"}, {"boundingBox": [554, 1864, 715, 1864, 716, 1893, 555, 1892], "text": "irritation"}, {"boundingBox": [729, 1864, 764, 1864, 765, 1893, 730, 1893], "text": "to"}, {"boundingBox": [775, 1864, 851, 1864, 852, 1893, 776, 1893], "text": "eyes."}]}, {"boundingBox": [1575, 1404, 1589, 1879, 1510, 1882, 1497, 1407], "text": "BET ( 5001 0 059", "words": [{"boundingBox": [1577, 1417, 1579, 1550, 1502, 1552, 1499, 1418], "text": "BET", "confidence": "Low"}, {"boundingBox": [1580, 1567, 1580, 1591, 1503, 1594, 1502, 1569], "text": "(", "confidence": "Low"}, {"boundingBox": [1581, 1608, 1584, 1710, 1506, 1713, 1504, 1611], "text": "5001", "confidence": "Low"}, {"boundingBox": [1584, 1726, 1585, 1751, 1507, 1755, 1507, 1730], "text": "0"}, {"boundingBox": [1586, 1767, 1590, 1874, 1511, 1880, 1508, 1772], "text": "059"}]}, {"boundingBox": [217, 1891, 1305, 1890, 1306, 1920, 218, 1921], "text": "Prolonged or repeated contact may cause irritation to eyes, skin and", "words": [{"boundingBox": [218, 1892, 363, 1893, 363, 1920, 218, 1919], "text": "Prolonged"}, {"boundingBox": [377, 1893, 412, 1894, 412, 1920, 377, 1920], "text": "or"}, {"boundingBox": [428, 1894, 557, 1894, 557, 1921, 428, 1920], "text": "repeated"}, {"boundingBox": [571, 1894, 685, 1894, 685, 1921, 571, 1921], "text": "contact"}, {"boundingBox": [695, 1894, 746, 1894, 747, 1921, 695, 1921], "text": "may"}, {"boundingBox": [761, 1894, 842, 1894, 842, 1921, 761, 1921], "text": "cause"}, {"boundingBox": [854, 1894, 1013, 1893, 1014, 1921, 855, 1921], "text": "irritation"}, {"boundingBox": [1029, 1893, 1061, 1893, 1062, 1920, 1030, 1921], "text": "to"}, {"boundingBox": [1077, 1893, 1160, 1892, 1161, 1920, 1077, 1920], "text": "eyes,"}, {"boundingBox": [1174, 1892, 1238, 1891, 1238, 1919, 1175, 1920], "text": "skin"}, {"boundingBox": [1256, 1890, 1305, 1890, 1306, 1919, 1256, 1919], "text": "and"}]}, {"boundingBox": [215, 1923, 504, 1920, 505, 1949, 216, 1952], "text": "respiratory tract.", "words": [{"boundingBox": [218, 1923, 397, 1922, 397, 1950, 218, 1953], "text": "respiratory"}, {"boundingBox": [413, 1922, 505, 1922, 505, 1949, 413, 1950], "text": "tract."}]}, {"boundingBox": [215, 1948, 985, 1951, 984, 1983, 214, 1980], "text": "Ingestion may cause gastrointestinal irritation.", "words": [{"boundingBox": [219, 1951, 361, 1951, 361, 1981, 219, 1979], "text": "Ingestion"}, {"boundingBox": [373, 1951, 430, 1952, 430, 1981, 373, 1981], "text": "may"}, {"boundingBox": [443, 1952, 527, 1952, 527, 1982, 443, 1981], "text": "cause"}, {"boundingBox": [540, 1952, 796, 1952, 796, 1983, 540, 1982], "text": "gastrointestinal"}, {"boundingBox": [810, 1952, 984, 1951, 984, 1984, 809, 1983], "text": "irritation."}]}, {"boundingBox": [214, 1975, 1075, 1977, 1074, 2010, 213, 2009], "text": "Organic pigments can burn at temperatures above 250'c.", "words": [{"boundingBox": [217, 1977, 334, 1980, 333, 2008, 216, 2007], "text": "Organic"}, {"boundingBox": [343, 1980, 479, 1982, 479, 2010, 343, 2009], "text": "pigments"}, {"boundingBox": [491, 1982, 541, 1983, 541, 2010, 491, 2010], "text": "can"}, {"boundingBox": [553, 1983, 621, 1983, 621, 2011, 553, 2010], "text": "burn"}, {"boundingBox": [635, 1983, 671, 1983, 672, 2011, 635, 2011], "text": "at"}, {"boundingBox": [683, 1983, 875, 1981, 876, 2011, 683, 2011], "text": "temperatures"}, {"boundingBox": [887, 1981, 968, 1980, 969, 2010, 887, 2011], "text": "above"}, {"boundingBox": [982, 1979, 1073, 1977, 1074, 2010, 983, 2010], "text": "250'c."}]}, {"boundingBox": [1087, 1980, 1352, 1981, 1351, 2009, 1086, 2008], "text": "This product is", "words": [{"boundingBox": [1109, 1981, 1175, 1983, 1176, 2008, 1109, 2008], "text": "This"}, {"boundingBox": [1188, 1983, 1306, 1983, 1306, 2009, 1188, 2008], "text": "product"}, {"boundingBox": [1320, 1982, 1350, 1981, 1351, 2009, 1321, 2009], "text": "is"}]}, {"boundingBox": [214, 2007, 1061, 2010, 1060, 2041, 213, 2038], "text": "not readily ignitable. Dust explosions are possible.", "words": [{"boundingBox": [217, 2008, 266, 2009, 266, 2036, 216, 2035], "text": "not"}, {"boundingBox": [281, 2009, 396, 2010, 395, 2038, 280, 2037], "text": "readily"}, {"boundingBox": [412, 2010, 576, 2011, 576, 2040, 411, 2039], "text": "ignitable."}, {"boundingBox": [603, 2011, 670, 2012, 670, 2041, 603, 2040], "text": "Dust"}, {"boundingBox": [683, 2012, 842, 2012, 843, 2040, 683, 2041], "text": "explosions"}, {"boundingBox": [855, 2011, 904, 2011, 905, 2040, 855, 2040], "text": "are"}, {"boundingBox": [917, 2011, 1060, 2010, 1061, 2039, 917, 2040], "text": "possible."}]}, {"boundingBox": [1503, 1823, 1500, 2016, 1468, 2015, 1471, 1823], "text": "52316 0080", "words": [{"boundingBox": [1504, 1827, 1502, 1920, 1471, 1919, 1471, 1825], "text": "52316"}, {"boundingBox": [1501, 1942, 1497, 2016, 1472, 2014, 1471, 1940], "text": "0080"}]}, {"boundingBox": [1419, 2130, 1572, 2133, 1572, 2161, 1418, 2158], "text": "8/16/99 1:41 PM", "words": [{"boundingBox": [1419, 2133, 1488, 2133, 1489, 2159, 1420, 2158], "text": "8/16/99"}, {"boundingBox": [1493, 2133, 1531, 2133, 1531, 2160, 1494, 2159], "text": "1:41"}, {"boundingBox": [1536, 2133, 1564, 2133, 1564, 2161, 1536, 2160], "text": "PM"}]}, {"boundingBox": [671, 2202, 1322, 2199, 1322, 2236, 672, 2240], "text": ".industrydocuments.ucsf.edu/docs/jswf0065", "words": [{"boundingBox": [672, 2207, 1317, 2199, 1318, 2237, 673, 2236], "text": ".industrydocuments.ucsf.edu/docs/jswf0065"}]}]}]}